pretty_formula,spacegroup.number,band_gap,density,volume,formation_energy_per_atom,nsites
K2TeI6,14,1.8184,3.934886535325115,816.3448987012565,-0.7579906823333332,18
Li3BiO3,2,2.4933,5.047879679200749,731.0798812653571,-1.98293165625,56
K2TiS3,15,1.4243,2.261437882307086,326.4021453565674,-1.6930141589513887,12
K2CoO2,14,0.6651,2.826528752635312,397.44105063827726,-1.4906117912000003,20
LiPO3,14,5.5612,2.278779972327773,751.253731175769,-2.719270565130953,60
Li2TiO3,15,3.0688000000000004,3.336254064056301,218.4959652963505,-2.9896021714583334,24
Na3BP2,14,1.8451,1.6867849048507435,558.0903668702441,-0.3365304481349203,24
Na2ZnO2,14,1.457,3.489915503961095,272.90090784654694,-1.663912369833333,20
NaP4N7,15,4.3009,3.004701178077565,270.7215533846121,-0.6830393245232548,24
K2TeS3,14,2.3442000000000003,2.472444511733595,811.2923824258888,-1.077433784645833,24
Na3TiCl6,14,0.0638999999999998,2.2896202397475185,478.0162170430391,-2.0562710812893337,20
Na3BS3,15,2.6404,1.964922904354448,297.430370196926,-1.235996905505952,14
Na14Al4O13,14,2.4679,2.4611885460863605,860.6008762092383,-2.271772775255376,62
KAuI3,14,0.6537000000000001,4.857177776624302,843.4399355434867,-0.6636010711000004,20
Na3B7O12,2,4.9298,2.3104214635907696,483.8964654049827,-2.774949749962121,44
Na5TlSn3,14,0.0500999999999995,4.021524981680485,1115.6278150364635,-0.1936384137962963,36
LiBO2,14,5.232,2.079064456856911,158.94292593409287,-2.74563400125,16
KN3O4,14,2.8629,2.0310295491338493,474.5785944699618,-0.9326506928300002,32
K2TaF7,14,5.6083,3.8941482874611526,668.852462600596,-3.5347483196830005,40
Na3ScF6,14,6.839500000000001,2.764384807089652,273.8134152267102,-3.543896088214,20
Li4SeO5,15,2.4751,3.0540553752054875,203.04642644782223,-1.9585813206927083,20
K4WO5,2,3.2324,3.695665592387646,1132.9087764366154,-2.086238078658333,60
KDy2Cl7,14,4.5419,3.4416554934869352,1181.637260154429,-2.659165249082,40
K2(TcS2)3,15,1.0408999999999995,3.794280691789184,988.3487089478168,-1.201632954977274,44
NaSbS2,15,1.3776999999999997,3.4936471621499305,198.56213350313664,-1.012031896145834,8
Na2SeO3,14,4.2817,3.255875689033072,352.8020089165268,-1.8118618729600693,24
K3AlP2,2,0.6989999999999998,1.890659935842653,1448.9880062486563,-0.480248407065476,48
K3GaTe3,14,1.5323,3.446830462400693,1098.0579336518304,-0.876442439142857,28
K3SnSe3,14,1.6667,3.207165008403708,979.3619578633048,-1.0012253269330362,28
Na5NbO5,15,2.6377,2.9814646602771138,320.6409746950083,-2.2481964161742427,22
Li4WO5,2,3.8918,5.16849485314786,187.371707283298,-2.3726650479583333,20
Na2MnF5,14,2.4314,2.9778897861444684,436.9745920147495,-2.79026623977898,32
Na(CO)2,14,2.6287000000000003,2.0388248824714785,257.40148998233786,-1.2923985251666663,20
KB3O5,14,5.225300000000001,2.224727255805928,1357.2108375379266,-2.8226300900092585,108
K2Cr2O7,15,2.7755,2.4992679311845545,390.9184885676201,-1.9404914072500008,22
Na2SnSe3,14,1.3282999999999998,3.803238322908224,701.3201383872425,-0.7748734906163192,24
KCuCl3,14,0.2416,2.065254287127698,672.1848188118263,-1.4094520075559998,20
Na6Mo10O33,2,3.0432,3.851845453030554,700.678524625966,-2.1049924430867346,49
Li2SeO4,2,0.4034999999999999,2.512127024523366,622.0345080822442,-1.3351990653348216,42
Na2Cr2O7,2,2.5253,2.654094730177406,655.6018170924063,-1.8695085307196964,44
K4SnO4,2,2.3423,2.977324240601096,378.252471287192,-1.839864775222222,18
LiTa3O8,15,3.3841,7.889694755714257,285.3037887324469,-3.2636987711111125,24
LiSmO2,14,3.7655,6.485181854389346,193.88181874148253,-3.1857512070833334,16
K4UO5,2,2.1910000000000003,4.2076699136856055,374.45497496573154,-2.6457213253250003,20